version 3
run General-0-20251207-20:42:03-4956
attr configname General
attr datetime 20251207-20:42:03
attr datetimef 20251207-204203
attr experiment General
attr inifile omnetpp.ini
attr iterationvars ""
attr iterationvarsd ""
attr iterationvarsf ""
attr measurement ""
attr network clusteringmanet.simulations.ClusteringNetwork
attr processid 4956
attr repetition 0
attr replication #0
attr resultdir results
attr runnumber 0
attr seedset 0
config image-path ../../inet-4.5.4/images
config network clusteringmanet.simulations.ClusteringNetwork
config sim-time-limit 200s
config *.host[*].numApps 1
config *.host[*].app[0].typename GraphColoringClustering
config *.host[*].hasUdp true
config ClusteringNetwork.numHosts 2
config *.host[*].mobility.typename RandomWaypointMobility
config *.host[*].mobility.initialZ 0m
config *.host[*].mobility.initFromDisplayString false
config *.host[*].mobility.constraintAreaMinX 0m
config *.host[*].mobility.constraintAreaMinY 0m
config *.host[*].mobility.constraintAreaMinZ 0m
config *.host[*].mobility.constraintAreaMaxX 500m
config *.host[*].mobility.constraintAreaMaxY 500m
config *.host[*].mobility.constraintAreaMaxZ 0m
config *.host[*].mobility.speed "uniform(1mps, 5mps)"
config *.host[*].mobility.waitTime 1s
config *.host[*].wlan[0].typename AckingWirelessInterface
config *.host[*].wlan[0].radio.transmitter.power 2mW
config *.host[*].wlan[0].radio.transmitter.bitrate 6Mbps
config *.host[*].wlan[0].radio.receiver.sensitivity -85dBm
config *.host[*].wlan[0].radio.receiver.snirThreshold 4dB
config *.host[*].wlan[0].radio.transmitter.communicationRange 100m
config *.host[*].wlan[0].mac.bitrate 6Mbps
config *.host[*].wlan[0].radio.receiver.bitrate 6Mbps
config *.host[*].wlan[0].bitrate 6Mbps
config *.host[*].app[0].helloInterval 0.5s
config *.host[*].app[0].neighborTimeout 2s
config *.host[*].app[0].maintenanceInterval 0.5s
config *.host[*].app[0].coloringJitter 0.7s
config *.host[*].app[0].localPort 5000
config *.host[*].app[0].destPort 5000

vector 0 ClusteringNetwork.host[0].lo[0].lo rcvdPkFromHl:vector(packetBytes) ETV
attr interpolationmode none
attr recordingmode vector(packetBytes)
attr source packetReceivedFromUpper
attr title "packets received from higher layer, packetBytes"
vector 1 ClusteringNetwork.host[0].lo[0].lo passedUpPk:vector(packetBytes) ETV
attr interpolationmode none
attr recordingmode vector(packetBytes)
attr source packetSentToUpper
attr title "packets passed to higher layer, packetBytes"
vector 2 ClusteringNetwork.host[0].lo[0] packetDropInterfaceDown:vector(packetBytes) ETV
attr interpolationmode none
attr recordingmode vector(packetBytes)
attr source packetDropReasonIsInterfaceDown(packetDropped)
attr title "packet drops: interface down, packetBytes"
vector 3 ClusteringNetwork.host[0].lo[0] packetDropNoCarrier:vector(packetBytes) ETV
attr interpolationmode none
attr recordingmode vector(packetBytes)
attr source packetDropReasonIsNoCarrier(packetDropped)
attr title "packet drops: no carrier, packetBytes"
vector 4 ClusteringNetwork.host[0].wlan[0].queue queueLength:vector ETV
attr autoWarmupFilter false
attr interpolationmode sample-hold
attr recordingmode vector
attr source "warmup(atomic(constant0(packetPushEnded) + count(packetPushStarted) - count(packetPulled) - count(packetRemoved) - count(packetDropped)))"
attr title "queue length"
attr unit pk
vector 5 ClusteringNetwork.host[0].wlan[0].queue queueBitLength:vector ETV
attr autoWarmupFilter false
attr interpolationmode sample-hold
attr recordingmode vector
attr source "warmup(atomic(constant0(packetPushEnded) + sum(packetLength(packetPushStarted)) - sum(packetLength(packetPulled)) - sum(packetLength(packetRemoved)) - sum(packetLength(packetDropped))))"
attr title "queue bit length"
attr unit b
vector 6 ClusteringNetwork.host[0].wlan[0].queue queueingTime:vector ETV
attr interpolationmode none
attr recordingmode vector
attr source queueingTime(packetPulled)
attr title "queueing times"
attr unit s
vector 7 ClusteringNetwork.host[0].wlan[0].queue incomingPacketLengths:vector ETV
attr interpolationmode none
attr recordingmode vector
attr source packetLength(packetPushStarted)
attr title "incoming packet lengths"
attr unit b
vector 8 ClusteringNetwork.host[0].wlan[0].queue incomingDataRate:vector ETV
attr interpolationmode linear
attr recordingmode vector
attr source throughput(packetPushStarted)
attr title "incoming datarate"
attr unit bps
vector 9 ClusteringNetwork.host[0].wlan[0].queue outgoingPacketLengths:vector ETV
attr interpolationmode none
attr recordingmode vector
attr source packetLength(packetPulled)
attr title "outgoing packet lengths"
attr unit b
vector 10 ClusteringNetwork.host[0].wlan[0].queue outgoingDataRate:vector ETV
attr interpolationmode linear
attr recordingmode vector
attr source throughput(packetPulled)
attr title "outgoing datarate"
attr unit bps
vector 11 ClusteringNetwork.host[0].wlan[0].queue droppedPacketLengthsQueueOverflow:vector ETV
attr interpolationmode none
attr recordingmode vector
attr source packetLength(packetDropReasonIsQueueOverflow(packetDropped))
attr title "dropped packet lengths: queue overflow"
attr unit b
vector 12 ClusteringNetwork.host[0].wlan[0].queue flowQueueingTime:vector ETV
attr interpolationmode none
attr recordingmode vector
attr source queueingTime(demuxFlow(packetPulled))
attr title "flow queueing times"
attr unit s
vector 13 ClusteringNetwork.host[0].wlan[0].queue flowIncomingDataRate:vector ETV
attr interpolationmode linear
attr recordingmode vector
attr source throughput(flowPacketLength(demuxFlow(packetPushStarted)))
attr title "flow specific incoming data rate"
attr unit bps
vector 14 ClusteringNetwork.host[0].wlan[0].queue flowOutgoingDataRate:vector ETV
attr interpolationmode linear
attr recordingmode vector
attr source throughput(flowPacketLength(demuxFlow(packetPulled)))
attr title "flow specific outgoing data rate"
attr unit bps
vector 15 ClusteringNetwork.host[0].wlan[0].mac passedUpPk:vector(packetBytes) ETV
attr interpolationmode none
attr recordingmode vector(packetBytes)
attr source packetSentToUpper
attr title "packets passed to higher layer, packetBytes"
vector 16 ClusteringNetwork.host[0].wlan[0].mac sentDownPk:vector(packetBytes) ETV
attr interpolationmode none
attr recordingmode vector(packetBytes)
attr source packetSentToLower
attr title "packets sent to lower layer, packetBytes"
vector 17 ClusteringNetwork.host[0].wlan[0].mac rcvdPkFromHl:vector(packetBytes) ETV
attr interpolationmode none
attr recordingmode vector(packetBytes)
attr source packetReceivedFromUpper
attr title "packets received from higher layer, packetBytes"
vector 18 ClusteringNetwork.host[0].wlan[0].mac rcvdPkFromLl:vector(packetBytes) ETV
attr interpolationmode none
attr recordingmode vector(packetBytes)
attr source packetReceivedFromLower
attr title "packets received from lower layer, packetBytes"
vector 19 ClusteringNetwork.host[0].wlan[0].mac packetDropIncorrectlyReceived:vector(packetBytes) ETV
attr interpolationmode none
attr recordingmode vector(packetBytes)
attr source packetDropReasonIsIncorrectlyReceived(packetDropped)
attr title "packet drop: incorrectly received, packetBytes"
vector 20 ClusteringNetwork.host[0].wlan[0].mac packetDropInterfaceDown:vector(packetBytes) ETV
attr interpolationmode none
attr recordingmode vector(packetBytes)
attr source packetDropReasonIsInterfaceDown(packetDropped)
attr title "packet drop: interface down, packetBytes"
vector 21 ClusteringNetwork.host[0].wlan[0].mac packetDropNotAddressedToUs:vector(packetBytes) ETV
attr interpolationmode none
attr recordingmode vector(packetBytes)
attr source packetDropReasonIsNotAddressedToUs(packetDropped)
attr title "packet drop: not addressed to us, packetBytes"
vector 22 ClusteringNetwork.host[0].wlan[0].radio radioMode:vector ETV
attr interpolationmode sample-hold
attr recordingmode vector
attr source radioModeChanged
attr title "Radio mode"
vector 23 ClusteringNetwork.host[0].wlan[0].radio receptionState:vector ETV
attr interpolationmode sample-hold
attr recordingmode vector
attr source receptionStateChanged
attr title "Radio reception state"
vector 24 ClusteringNetwork.host[0].wlan[0].radio transmissionState:vector ETV
attr interpolationmode sample-hold
attr recordingmode vector
attr source transmissionStateChanged
attr title "Radio transmission state"
vector 25 ClusteringNetwork.host[0].wlan[0] packetDropInterfaceDown:vector(packetBytes) ETV
attr interpolationmode none
attr recordingmode vector(packetBytes)
attr source packetDropReasonIsInterfaceDown(packetDropped)
attr title "packet drops: interface down, packetBytes"
vector 26 ClusteringNetwork.host[0].wlan[0] packetDropNoCarrier:vector(packetBytes) ETV
attr interpolationmode none
attr recordingmode vector(packetBytes)
attr source packetDropReasonIsNoCarrier(packetDropped)
attr title "packet drops: no carrier, packetBytes"
vector 27 ClusteringNetwork.host[0].ipv4.ip packetDropAddressResolutionFailed:vector(packetBytes) ETV
attr interpolationmode none
attr recordingmode vector(packetBytes)
attr source packetDropReasonIsAddressResolutionFailed(packetDropped)
attr title "packet drop: address resolution failed, packetBytes"
vector 28 ClusteringNetwork.host[0].ipv4.ip packetDropHopLimitReached:vector(packetBytes) ETV
attr interpolationmode none
attr recordingmode vector(packetBytes)
attr source packetDropReasonIsHopLimitReached(packetDropped)
attr title "packet drop: hop limit reached, packetBytes"
vector 29 ClusteringNetwork.host[0].ipv4.ip packetDropForwardingDisabled:vector(packetBytes) ETV
attr interpolationmode none
attr recordingmode vector(packetBytes)
attr source packetDropReasonIsForwardingDisabled(packetDropped)
attr title "packet drop: forwarding disabled, packetBytes"
vector 30 ClusteringNetwork.host[0].ipv4.ip packetDropNoInterfaceFound:vector(packetBytes) ETV
attr interpolationmode none
attr recordingmode vector(packetBytes)
attr source packetDropReasonIsNoInterfaceFound(packetDropped)
attr title "packet drop: no interface found, packetBytes"
vector 31 ClusteringNetwork.host[0].ipv4.ip packetDropNoRouteFound:vector(packetBytes) ETV
attr interpolationmode none
attr recordingmode vector(packetBytes)
attr source packetDropReasonIsNoRouteFound(packetDropped)
attr title "packet drop: no route found, packetBytes"
vector 32 ClusteringNetwork.host[0].ipv4.ip packetDropUndefined:vector(packetBytes) ETV
attr interpolationmode none
attr recordingmode vector(packetBytes)
attr source packetDropReasonIsUndefined(packetDropped)
attr title "packet drop: undefined, packetBytes"
vector 33 ClusteringNetwork.host[0].ipv4.arp arpRequestSent:vector(packetBytes) ETV
attr recordingmode vector(packetBytes)
attr source arpRequestSent
attr title "ARP request sent, packetBytes"
vector 34 ClusteringNetwork.host[0].ipv4.arp arpReplySent:vector(packetBytes) ETV
attr recordingmode vector(packetBytes)
attr source arpReplySent
attr title "ARP replies sent, packetBytes"
vector 35 ClusteringNetwork.host[0].udp packetSent:vector(packetBytes) ETV
attr interpolationmode none
attr recordingmode vector(packetBytes)
attr source packetSent
attr title "packets sent, packetBytes"
vector 36 ClusteringNetwork.host[0].udp packetReceived:vector(packetBytes) ETV
attr interpolationmode none
attr recordingmode vector(packetBytes)
attr source packetReceived
attr title "packets received, packetBytes"
vector 37 ClusteringNetwork.host[0].udp passedUpPk:vector(count) ETV
attr interpolationmode none
attr recordingmode vector(count)
attr source packetSentToUpper
attr title "packets passed up, count"
vector 38 ClusteringNetwork.host[0].udp droppedPkWrongPort:vector(count) ETV
attr interpolationmode none
attr recordingmode vector(count)
attr source packetDropReasonIsNoPortFound(packetDropped)
attr title "packets dropped (wrong port), count"
vector 39 ClusteringNetwork.host[0].udp droppedPkBadChecksum:vector(count) ETV
attr interpolationmode none
attr recordingmode vector(count)
attr source packetDropReasonIsIncorrectlyReceived(packetDropped)
attr title "packets dropped (checksum error), count"
vector 40 ClusteringNetwork.host[1].lo[0].lo rcvdPkFromHl:vector(packetBytes) ETV
attr interpolationmode none
attr recordingmode vector(packetBytes)
attr source packetReceivedFromUpper
attr title "packets received from higher layer, packetBytes"
vector 41 ClusteringNetwork.host[1].lo[0].lo passedUpPk:vector(packetBytes) ETV
attr interpolationmode none
attr recordingmode vector(packetBytes)
attr source packetSentToUpper
attr title "packets passed to higher layer, packetBytes"
vector 42 ClusteringNetwork.host[1].lo[0] packetDropInterfaceDown:vector(packetBytes) ETV
attr interpolationmode none
attr recordingmode vector(packetBytes)
attr source packetDropReasonIsInterfaceDown(packetDropped)
attr title "packet drops: interface down, packetBytes"
vector 43 ClusteringNetwork.host[1].lo[0] packetDropNoCarrier:vector(packetBytes) ETV
attr interpolationmode none
attr recordingmode vector(packetBytes)
attr source packetDropReasonIsNoCarrier(packetDropped)
attr title "packet drops: no carrier, packetBytes"
vector 44 ClusteringNetwork.host[1].wlan[0].queue queueLength:vector ETV
attr autoWarmupFilter false
attr interpolationmode sample-hold
attr recordingmode vector
attr source "warmup(atomic(constant0(packetPushEnded) + count(packetPushStarted) - count(packetPulled) - count(packetRemoved) - count(packetDropped)))"
attr title "queue length"
attr unit pk
vector 45 ClusteringNetwork.host[1].wlan[0].queue queueBitLength:vector ETV
attr autoWarmupFilter false
attr interpolationmode sample-hold
attr recordingmode vector
attr source "warmup(atomic(constant0(packetPushEnded) + sum(packetLength(packetPushStarted)) - sum(packetLength(packetPulled)) - sum(packetLength(packetRemoved)) - sum(packetLength(packetDropped))))"
attr title "queue bit length"
attr unit b
vector 46 ClusteringNetwork.host[1].wlan[0].queue queueingTime:vector ETV
attr interpolationmode none
attr recordingmode vector
attr source queueingTime(packetPulled)
attr title "queueing times"
attr unit s
vector 47 ClusteringNetwork.host[1].wlan[0].queue incomingPacketLengths:vector ETV
attr interpolationmode none
attr recordingmode vector
attr source packetLength(packetPushStarted)
attr title "incoming packet lengths"
attr unit b
vector 48 ClusteringNetwork.host[1].wlan[0].queue incomingDataRate:vector ETV
attr interpolationmode linear
attr recordingmode vector
attr source throughput(packetPushStarted)
attr title "incoming datarate"
attr unit bps
vector 49 ClusteringNetwork.host[1].wlan[0].queue outgoingPacketLengths:vector ETV
attr interpolationmode none
attr recordingmode vector
attr source packetLength(packetPulled)
attr title "outgoing packet lengths"
attr unit b
vector 50 ClusteringNetwork.host[1].wlan[0].queue outgoingDataRate:vector ETV
attr interpolationmode linear
attr recordingmode vector
attr source throughput(packetPulled)
attr title "outgoing datarate"
attr unit bps
vector 51 ClusteringNetwork.host[1].wlan[0].queue droppedPacketLengthsQueueOverflow:vector ETV
attr interpolationmode none
attr recordingmode vector
attr source packetLength(packetDropReasonIsQueueOverflow(packetDropped))
attr title "dropped packet lengths: queue overflow"
attr unit b
vector 52 ClusteringNetwork.host[1].wlan[0].queue flowQueueingTime:vector ETV
attr interpolationmode none
attr recordingmode vector
attr source queueingTime(demuxFlow(packetPulled))
attr title "flow queueing times"
attr unit s
vector 53 ClusteringNetwork.host[1].wlan[0].queue flowIncomingDataRate:vector ETV
attr interpolationmode linear
attr recordingmode vector
attr source throughput(flowPacketLength(demuxFlow(packetPushStarted)))
attr title "flow specific incoming data rate"
attr unit bps
vector 54 ClusteringNetwork.host[1].wlan[0].queue flowOutgoingDataRate:vector ETV
attr interpolationmode linear
attr recordingmode vector
attr source throughput(flowPacketLength(demuxFlow(packetPulled)))
attr title "flow specific outgoing data rate"
attr unit bps
vector 55 ClusteringNetwork.host[1].wlan[0].mac passedUpPk:vector(packetBytes) ETV
attr interpolationmode none
attr recordingmode vector(packetBytes)
attr source packetSentToUpper
attr title "packets passed to higher layer, packetBytes"
vector 56 ClusteringNetwork.host[1].wlan[0].mac sentDownPk:vector(packetBytes) ETV
attr interpolationmode none
attr recordingmode vector(packetBytes)
attr source packetSentToLower
attr title "packets sent to lower layer, packetBytes"
vector 57 ClusteringNetwork.host[1].wlan[0].mac rcvdPkFromHl:vector(packetBytes) ETV
attr interpolationmode none
attr recordingmode vector(packetBytes)
attr source packetReceivedFromUpper
attr title "packets received from higher layer, packetBytes"
vector 58 ClusteringNetwork.host[1].wlan[0].mac rcvdPkFromLl:vector(packetBytes) ETV
attr interpolationmode none
attr recordingmode vector(packetBytes)
attr source packetReceivedFromLower
attr title "packets received from lower layer, packetBytes"
vector 59 ClusteringNetwork.host[1].wlan[0].mac packetDropIncorrectlyReceived:vector(packetBytes) ETV
attr interpolationmode none
attr recordingmode vector(packetBytes)
attr source packetDropReasonIsIncorrectlyReceived(packetDropped)
attr title "packet drop: incorrectly received, packetBytes"
vector 60 ClusteringNetwork.host[1].wlan[0].mac packetDropInterfaceDown:vector(packetBytes) ETV
attr interpolationmode none
attr recordingmode vector(packetBytes)
attr source packetDropReasonIsInterfaceDown(packetDropped)
attr title "packet drop: interface down, packetBytes"
vector 61 ClusteringNetwork.host[1].wlan[0].mac packetDropNotAddressedToUs:vector(packetBytes) ETV
attr interpolationmode none
attr recordingmode vector(packetBytes)
attr source packetDropReasonIsNotAddressedToUs(packetDropped)
attr title "packet drop: not addressed to us, packetBytes"
vector 62 ClusteringNetwork.host[1].wlan[0].radio radioMode:vector ETV
attr interpolationmode sample-hold
attr recordingmode vector
attr source radioModeChanged
attr title "Radio mode"
vector 63 ClusteringNetwork.host[1].wlan[0].radio receptionState:vector ETV
attr interpolationmode sample-hold
attr recordingmode vector
attr source receptionStateChanged
attr title "Radio reception state"
vector 64 ClusteringNetwork.host[1].wlan[0].radio transmissionState:vector ETV
attr interpolationmode sample-hold
attr recordingmode vector
attr source transmissionStateChanged
attr title "Radio transmission state"
vector 65 ClusteringNetwork.host[1].wlan[0] packetDropInterfaceDown:vector(packetBytes) ETV
attr interpolationmode none
attr recordingmode vector(packetBytes)
attr source packetDropReasonIsInterfaceDown(packetDropped)
attr title "packet drops: interface down, packetBytes"
vector 66 ClusteringNetwork.host[1].wlan[0] packetDropNoCarrier:vector(packetBytes) ETV
attr interpolationmode none
attr recordingmode vector(packetBytes)
attr source packetDropReasonIsNoCarrier(packetDropped)
attr title "packet drops: no carrier, packetBytes"
vector 67 ClusteringNetwork.host[1].ipv4.ip packetDropAddressResolutionFailed:vector(packetBytes) ETV
attr interpolationmode none
attr recordingmode vector(packetBytes)
attr source packetDropReasonIsAddressResolutionFailed(packetDropped)
attr title "packet drop: address resolution failed, packetBytes"
vector 68 ClusteringNetwork.host[1].ipv4.ip packetDropHopLimitReached:vector(packetBytes) ETV
attr interpolationmode none
attr recordingmode vector(packetBytes)
attr source packetDropReasonIsHopLimitReached(packetDropped)
attr title "packet drop: hop limit reached, packetBytes"
vector 69 ClusteringNetwork.host[1].ipv4.ip packetDropForwardingDisabled:vector(packetBytes) ETV
attr interpolationmode none
attr recordingmode vector(packetBytes)
attr source packetDropReasonIsForwardingDisabled(packetDropped)
attr title "packet drop: forwarding disabled, packetBytes"
vector 70 ClusteringNetwork.host[1].ipv4.ip packetDropNoInterfaceFound:vector(packetBytes) ETV
attr interpolationmode none
attr recordingmode vector(packetBytes)
attr source packetDropReasonIsNoInterfaceFound(packetDropped)
attr title "packet drop: no interface found, packetBytes"
vector 71 ClusteringNetwork.host[1].ipv4.ip packetDropNoRouteFound:vector(packetBytes) ETV
attr interpolationmode none
attr recordingmode vector(packetBytes)
attr source packetDropReasonIsNoRouteFound(packetDropped)
attr title "packet drop: no route found, packetBytes"
vector 72 ClusteringNetwork.host[1].ipv4.ip packetDropUndefined:vector(packetBytes) ETV
attr interpolationmode none
attr recordingmode vector(packetBytes)
attr source packetDropReasonIsUndefined(packetDropped)
attr title "packet drop: undefined, packetBytes"
vector 73 ClusteringNetwork.host[1].ipv4.arp arpRequestSent:vector(packetBytes) ETV
attr recordingmode vector(packetBytes)
attr source arpRequestSent
attr title "ARP request sent, packetBytes"
vector 74 ClusteringNetwork.host[1].ipv4.arp arpReplySent:vector(packetBytes) ETV
attr recordingmode vector(packetBytes)
attr source arpReplySent
attr title "ARP replies sent, packetBytes"
vector 75 ClusteringNetwork.host[1].udp packetSent:vector(packetBytes) ETV
attr interpolationmode none
attr recordingmode vector(packetBytes)
attr source packetSent
attr title "packets sent, packetBytes"
vector 76 ClusteringNetwork.host[1].udp packetReceived:vector(packetBytes) ETV
attr interpolationmode none
attr recordingmode vector(packetBytes)
attr source packetReceived
attr title "packets received, packetBytes"
vector 77 ClusteringNetwork.host[1].udp passedUpPk:vector(count) ETV
attr interpolationmode none
attr recordingmode vector(count)
attr source packetSentToUpper
attr title "packets passed up, count"
vector 78 ClusteringNetwork.host[1].udp droppedPkWrongPort:vector(count) ETV
attr interpolationmode none
attr recordingmode vector(count)
attr source packetDropReasonIsNoPortFound(packetDropped)
attr title "packets dropped (wrong port), count"
vector 79 ClusteringNetwork.host[1].udp droppedPkBadChecksum:vector(count) ETV
attr interpolationmode none
attr recordingmode vector(count)
attr source packetDropReasonIsIncorrectlyReceived(packetDropped)
attr title "packets dropped (checksum error), count"
0	25	0.5	29
0	62	1	29
0	101	1.5	29
0	138	2	29
0	177	2.5	29
0	216	3	29
0	255	3.5	29
0	292	4	29
1	25	0.5	29
1	62	1	29
1	101	1.5	29
1	138	2	29
1	177	2.5	29
1	216	3	29
1	255	3.5	29
1	292	4	29
4	0	0	0
4	0	0	0
4	0	0	0
4	0	0	0
4	0	0	0
4	26	0.5	0
4	63	1	0
4	102	1.5	0
4	139	2	0
4	178	2.5	0
4	217	3	0
4	256	3.5	0
4	293	4	0
5	0	0	0
5	0	0	0
5	0	0	0
5	0	0	0
5	0	0	0
5	26	0.5	0
5	63	1	0
5	102	1.5	0
5	139	2	0
5	178	2.5	0
5	217	3	0
5	256	3.5	0
5	293	4	0
6	26	0.5	0
6	63	1	0
6	102	1.5	0
6	139	2	0
6	178	2.5	0
6	217	3	0
6	256	3.5	0
6	293	4	0
7	26	0.5	232
7	63	1	232
7	102	1.5	232
7	139	2	232
7	178	2.5	232
7	217	3	232
7	256	3.5	232
7	293	4	232
9	26	0.5	232
9	63	1	232
9	102	1.5	232
9	139	2	232
9	178	2.5	232
9	217	3	232
9	256	3.5	232
9	293	4	232
16	26	0.5	45
16	63	1	45
16	102	1.5	45
16	139	2	45
16	178	2.5	45
16	217	3	45
16	256	3.5	45
16	293	4	45
17	26	0.5	29
17	63	1	29
17	102	1.5	29
17	139	2	29
17	178	2.5	29
17	217	3	29
17	256	3.5	29
17	293	4	29
22	0	0	0
22	0	0	0
22	0	0	4
23	0	0	1
24	0	0	1
24	30	0.5	2
24	39	0.500076	1
24	67	1	2
24	76	1.000076	1
24	106	1.5	2
24	115	1.500076	1
24	143	2	2
24	152	2.000076	1
24	182	2.5	2
24	191	2.500076	1
24	221	3	2
24	230	3.000076	1
24	260	3.5	2
24	269	3.500076	1
24	297	4	2
35	21	0.5	9
35	58	1	9
35	97	1.5	9
35	134	2	9
35	173	2.5	9
35	212	3	9
35	251	3.5	9
35	288	4	9
36	33	0.5	9
36	70	1	9
36	109	1.5	9
36	146	2	9
36	185	2.5	9
36	224	3	9
36	263	3.5	9
36	300	4	9
37	0	0	0
37	33	0.5	1
37	70	1	2
37	109	1.5	3
37	146	2	4
37	185	2.5	5
37	224	3	6
37	263	3.5	7
37	300	4	8
38	0	0	0
39	0	0	0
40	27	0.5	29
40	64	1	29
40	103	1.5	29
40	140	2	29
40	179	2.5	29
40	218	3	29
40	257	3.5	29
40	294	4	29
41	27	0.5	29
41	64	1	29
41	103	1.5	29
41	140	2	29
41	179	2.5	29
41	218	3	29
41	257	3.5	29
41	294	4	29
44	0	0	0
44	0	0	0
44	0	0	0
44	0	0	0
44	0	0	0
44	28	0.5	0
44	65	1	0
44	104	1.5	0
44	141	2	0
44	180	2.5	0
44	219	3	0
44	258	3.5	0
44	295	4	0
45	0	0	0
45	0	0	0
45	0	0	0
45	0	0	0
45	0	0	0
45	28	0.5	0
45	65	1	0
45	104	1.5	0
45	141	2	0
45	180	2.5	0
45	219	3	0
45	258	3.5	0
45	295	4	0
46	28	0.5	0
46	65	1	0
46	104	1.5	0
46	141	2	0
46	180	2.5	0
46	219	3	0
46	258	3.5	0
46	295	4	0
47	28	0.5	232
47	65	1	232
47	104	1.5	232
47	141	2	232
47	180	2.5	232
47	219	3	232
47	258	3.5	232
47	295	4	232
49	28	0.5	232
49	65	1	232
49	104	1.5	232
49	141	2	232
49	180	2.5	232
49	219	3	232
49	258	3.5	232
49	295	4	232
56	28	0.5	45
56	65	1	45
56	104	1.5	45
56	141	2	45
56	180	2.5	45
56	219	3	45
56	258	3.5	45
56	295	4	45
57	28	0.5	29
57	65	1	29
57	104	1.5	29
57	141	2	29
57	180	2.5	29
57	219	3	29
57	258	3.5	29
57	295	4	29
62	0	0	0
62	0	0	0
62	0	0	4
63	0	0	1
64	0	0	1
64	32	0.5	2
64	40	0.500076	1
64	69	1	2
64	77	1.000076	1
64	108	1.5	2
64	116	1.500076	1
64	145	2	2
64	153	2.000076	1
64	184	2.5	2
64	192	2.500076	1
64	223	3	2
64	231	3.000076	1
64	262	3.5	2
64	270	3.500076	1
64	299	4	2
75	22	0.5	9
75	59	1	9
75	98	1.5	9
75	135	2	9
75	174	2.5	9
75	213	3	9
75	252	3.5	9
75	289	4	9
76	34	0.5	9
76	71	1	9
76	110	1.5	9
76	147	2	9
76	186	2.5	9
76	225	3	9
76	264	3.5	9
76	301	4	9
77	0	0	0
77	34	0.5	1
77	71	1	2
77	110	1.5	3
77	147	2	4
77	186	2.5	5
77	225	3	6
77	264	3.5	7
77	301	4	8
78	0	0	0
79	0	0	0
0	331	4.5	29
1	331	4.5	29
4	332	4.5	0
5	332	4.5	0
6	332	4.5	0
7	332	4.5	232
9	332	4.5	232
16	332	4.5	45
17	332	4.5	29
24	306	4.000076	1
24	336	4.5	2
24	345	4.500076	1
35	327	4.5	9
36	339	4.5	9
37	339	4.5	9
40	333	4.5	29
41	333	4.5	29
44	334	4.5	0
45	334	4.5	0
46	334	4.5	0
47	334	4.5	232
49	334	4.5	232
56	334	4.5	45
57	334	4.5	29
64	307	4.000076	1
64	338	4.5	2
64	346	4.500076	1
75	328	4.5	9
76	340	4.5	9
77	340	4.5	9
0	370	5	29
1	370	5	29
4	371	5	0
5	371	5	0
6	371	5	0
7	371	5	232
9	371	5	232
16	371	5	45
17	371	5	29
35	366	5	9
75	367	5	9
24	375	5	2
24	384	5.000076	1
36	378	5	9
37	378	5	10
40	372	5	29
41	372	5	29
44	373	5	0
45	373	5	0
46	373	5	0
47	373	5	232
49	373	5	232
56	373	5	45
57	373	5	29
64	377	5	2
64	385	5.000076	1
76	379	5	9
77	379	5	10
0	407	5.5	29
0	446	6	29
0	485	6.5	29
0	524	7	29
0	561	7.5	29
0	600	8	29
0	647	8.5	29
0	692	9	29
0	739	9.5	29
0	786	10	29
0	833	10.5	29
0	878	11	29
0	925	11.5	29
0	972	12	29
0	1017	12.5	29
1	407	5.5	29
1	446	6	29
1	485	6.5	29
1	524	7	29
1	561	7.5	29
1	600	8	29
1	647	8.5	29
1	692	9	29
1	739	9.5	29
1	786	10	29
1	833	10.5	29
1	878	11	29
1	925	11.5	29
1	972	12	29
1	1017	12.5	29
4	408	5.5	0
4	447	6	0
4	486	6.5	0
4	525	7	0
4	562	7.5	0
4	601	8	0
4	648	8.5	0
4	693	9	0
4	740	9.5	0
4	787	10	0
4	834	10.5	0
4	879	11	0
4	926	11.5	0
4	973	12	0
4	1018	12.5	0
5	408	5.5	0
5	447	6	0
5	486	6.5	0
5	525	7	0
5	562	7.5	0
5	601	8	0
5	648	8.5	0
5	693	9	0
5	740	9.5	0
5	787	10	0
5	834	10.5	0
5	879	11	0
5	926	11.5	0
5	973	12	0
5	1018	12.5	0
6	408	5.5	0
6	447	6	0
6	486	6.5	0
6	525	7	0
6	562	7.5	0
6	601	8	0
6	648	8.5	0
6	693	9	0
6	740	9.5	0
6	787	10	0
6	834	10.5	0
6	879	11	0
6	926	11.5	0
6	973	12	0
6	1018	12.5	0
7	408	5.5	232
7	447	6	232
7	486	6.5	232
7	525	7	232
7	562	7.5	232
7	601	8	232
7	648	8.5	232
7	693	9	232
7	740	9.5	232
7	787	10	232
7	834	10.5	232
7	879	11	232
7	926	11.5	232
7	973	12	232
7	1018	12.5	232
9	408	5.5	232
9	447	6	232
9	486	6.5	232
9	525	7	232
9	562	7.5	232
9	601	8	232
9	648	8.5	232
9	693	9	232
9	740	9.5	232
9	787	10	232
9	834	10.5	232
9	879	11	232
9	926	11.5	232
9	973	12	232
9	1018	12.5	232
15	619	8.000076331038	29
15	666	8.500076320373	29
15	711	9.000076309723	29
15	758	9.500076299087	29
15	805	10.000076288469	29
15	852	10.500076277869	29
15	897	11.00007626729	29
15	944	11.500076256735	29
15	991	12.000076246207	29
16	408	5.5	45
16	447	6	45
16	486	6.5	45
16	525	7	45
16	562	7.5	45
16	601	8	45
16	648	8.5	45
16	693	9	45
16	740	9.5	45
16	787	10	45
16	834	10.5	45
16	879	11	45
16	926	11.5	45
16	973	12	45
16	1018	12.5	45
17	408	5.5	29
17	447	6	29
17	486	6.5	29
17	525	7	29
17	562	7.5	29
17	601	8	29
17	648	8.5	29
17	693	9	29
17	740	9.5	29
17	787	10	29
17	834	10.5	29
17	879	11	29
17	926	11.5	29
17	973	12	29
17	1018	12.5	29
18	619	8.000076331038	45
18	666	8.500076320373	45
18	711	9.000076309723	45
18	758	9.500076299087	45
18	805	10.000076288469	45
18	852	10.500076277869	45
18	897	11.00007626729	45
18	944	11.500076256735	45
18	991	12.000076246207	45
23	613	8.000000331038	3
23	617	8.000076331038	1
23	660	8.500000320373	3
23	664	8.500076320373	1
23	705	9.000000309723	3
23	709	9.000076309723	1
23	752	9.500000299087	3
23	756	9.500076299087	1
23	799	10.000000288469	3
23	803	10.000076288469	1
23	846	10.500000277869	3
23	850	10.500076277869	1
23	891	11.00000026729	3
23	895	11.00007626729	1
23	938	11.500000256735	3
23	942	11.500076256735	1
23	985	12.000000246207	3
23	989	12.000076246207	1
23	1030	12.500000235709	3
24	412	5.5	2
24	421	5.500076	1
24	451	6	2
24	460	6.000076	1
24	490	6.5	2
24	499	6.500076	1
24	529	7	2
24	538	7.000076	1
24	566	7.5	2
24	575	7.500076	1
24	605	8	2
24	614	8.000076	1
24	652	8.5	2
24	661	8.500076	1
24	697	9	2
24	706	9.000076	1
24	744	9.5	2
24	753	9.500076	1
24	791	10	2
24	800	10.000076	1
24	838	10.5	2
24	847	10.500076	1
24	883	11	2
24	892	11.000076	1
24	930	11.5	2
24	939	11.500076	1
24	977	12	2
24	986	12.000076	1
24	1022	12.5	2
35	403	5.5	9
35	442	6	9
35	481	6.5	9
35	520	7	9
35	557	7.5	9
35	596	8	9
35	643	8.5	9
35	688	9	9
35	735	9.5	9
35	782	10	9
35	829	10.5	9
35	874	11	9
35	921	11.5	9
35	968	12	9
35	1013	12.5	9
36	415	5.5	9
36	454	6	9
36	493	6.5	9
36	532	7	9
36	569	7.5	9
36	608	8	9
36	623	8.000076331038	9
36	655	8.5	9
36	670	8.500076320373	9
36	700	9	9
36	715	9.000076309723	9
36	747	9.5	9
36	762	9.500076299087	9
36	794	10	9
36	809	10.000076288469	9
36	841	10.5	9
36	856	10.500076277869	9
36	886	11	9
36	901	11.00007626729	9
36	933	11.5	9
36	948	11.500076256735	9
36	980	12	9
36	995	12.000076246207	9
36	1025	12.5	9
37	415	5.5	11
37	454	6	12
37	493	6.5	13
37	532	7	14
37	569	7.5	15
37	608	8	16
37	623	8.000076331038	17
37	655	8.5	18
37	670	8.500076320373	19
37	700	9	20
37	715	9.000076309723	21
37	747	9.5	22
37	762	9.500076299087	23
37	794	10	24
37	809	10.000076288469	25
37	841	10.5	26
37	856	10.500076277869	27
37	886	11	28
37	901	11.00007626729	29
37	933	11.5	30
37	948	11.500076256735	31