version 3
run General-0-20251221-23:14:22-9904
attr configname General
attr datetime 20251221-23:14:22
attr datetimef 20251221-231422
attr experiment General
attr inifile omnetpp.ini
attr iterationvars ""
attr iterationvarsd ""
attr iterationvarsf ""
attr measurement ""
attr network clusteringmanet.simulations.ClusteringNetwork
attr processid 9904
attr repetition 0
attr replication #0
attr resultdir results
attr runnumber 0
attr seedset 0
config image-path ../../inet-4.5.4/images
config network clusteringmanet.simulations.ClusteringNetwork
config sim-time-limit 200s
config *.host[*].numApps 1
config *.host[*].app[0].typename GraphColoringClustering
config *.host[*].hasUdp true
config ClusteringNetwork.numHosts 2
config *.host[*].mobility.typename RandomWaypointMobility
config *.host[*].mobility.initialZ 0m
config *.host[*].mobility.initFromDisplayString false
config *.host[*].mobility.constraintAreaMinX 0m
config *.host[*].mobility.constraintAreaMinY 0m
config *.host[*].mobility.constraintAreaMinZ 0m
config *.host[*].mobility.constraintAreaMaxX 500m
config *.host[*].mobility.constraintAreaMaxY 500m
config *.host[*].mobility.constraintAreaMaxZ 0m
config *.host[*].mobility.speed "uniform(1mps, 5mps)"
config *.host[*].mobility.waitTime 1s
config *.host[*].wlan[0].typename AckingWirelessInterface
config *.host[*].wlan[0].radio.transmitter.power 2mW
config *.host[*].wlan[0].radio.transmitter.bitrate 6Mbps
config *.host[*].wlan[0].radio.receiver.sensitivity -85dBm
config *.host[*].wlan[0].radio.receiver.snirThreshold 4dB
config *.host[*].wlan[0].radio.transmitter.communicationRange 100m
config *.host[*].wlan[0].mac.bitrate 6Mbps
config *.host[*].wlan[0].radio.receiver.bitrate 6Mbps
config *.host[*].wlan[0].bitrate 6Mbps
config *.host[*].app[0].helloInterval 0.5s
config *.host[*].app[0].neighborTimeout 2s
config *.host[*].app[0].maintenanceInterval 0.5s
config *.host[*].app[0].coloringJitter 0.7s
config *.host[*].app[0].localPort 5000
config *.host[*].app[0].destPort 5000

vector 0 ClusteringNetwork.host[0].lo[0].lo rcvdPkFromHl:vector(packetBytes) ETV
attr interpolationmode none
attr recordingmode vector(packetBytes)
attr source packetReceivedFromUpper
attr title "packets received from higher layer, packetBytes"
vector 1 ClusteringNetwork.host[0].lo[0].lo passedUpPk:vector(packetBytes) ETV
attr interpolationmode none
attr recordingmode vector(packetBytes)
attr source packetSentToUpper
attr title "packets passed to higher layer, packetBytes"
vector 2 ClusteringNetwork.host[0].lo[0] packetDropInterfaceDown:vector(packetBytes) ETV
attr interpolationmode none
attr recordingmode vector(packetBytes)
attr source packetDropReasonIsInterfaceDown(packetDropped)
attr title "packet drops: interface down, packetBytes"
vector 3 ClusteringNetwork.host[0].lo[0] packetDropNoCarrier:vector(packetBytes) ETV
attr interpolationmode none
attr recordingmode vector(packetBytes)
attr source packetDropReasonIsNoCarrier(packetDropped)
attr title "packet drops: no carrier, packetBytes"
vector 4 ClusteringNetwork.host[0].wlan[0].queue queueLength:vector ETV
attr autoWarmupFilter false
attr interpolationmode sample-hold
attr recordingmode vector
attr source "warmup(atomic(constant0(packetPushEnded) + count(packetPushStarted) - count(packetPulled) - count(packetRemoved) - count(packetDropped)))"
attr title "queue length"
attr unit pk
vector 5 ClusteringNetwork.host[0].wlan[0].queue queueBitLength:vector ETV
attr autoWarmupFilter false
attr interpolationmode sample-hold
attr recordingmode vector
attr source "warmup(atomic(constant0(packetPushEnded) + sum(packetLength(packetPushStarted)) - sum(packetLength(packetPulled)) - sum(packetLength(packetRemoved)) - sum(packetLength(packetDropped))))"
attr title "queue bit length"
attr unit b
vector 6 ClusteringNetwork.host[0].wlan[0].queue queueingTime:vector ETV
attr interpolationmode none
attr recordingmode vector
attr source queueingTime(packetPulled)
attr title "queueing times"
attr unit s
vector 7 ClusteringNetwork.host[0].wlan[0].queue incomingPacketLengths:vector ETV
attr interpolationmode none
attr recordingmode vector
attr source packetLength(packetPushStarted)
attr title "incoming packet lengths"
attr unit b
vector 8 ClusteringNetwork.host[0].wlan[0].queue incomingDataRate:vector ETV
attr interpolationmode linear
attr recordingmode vector
attr source throughput(packetPushStarted)
attr title "incoming datarate"
attr unit bps
vector 9 ClusteringNetwork.host[0].wlan[0].queue outgoingPacketLengths:vector ETV
attr interpolationmode none
attr recordingmode vector
attr source packetLength(packetPulled)
attr title "outgoing packet lengths"
attr unit b
vector 10 ClusteringNetwork.host[0].wlan[0].queue outgoingDataRate:vector ETV
attr interpolationmode linear
attr recordingmode vector
attr source throughput(packetPulled)
attr title "outgoing datarate"
attr unit bps
vector 11 ClusteringNetwork.host[0].wlan[0].queue droppedPacketLengthsQueueOverflow:vector ETV
attr interpolationmode none
attr recordingmode vector
attr source packetLength(packetDropReasonIsQueueOverflow(packetDropped))
attr title "dropped packet lengths: queue overflow"
attr unit b
vector 12 ClusteringNetwork.host[0].wlan[0].queue flowQueueingTime:vector ETV
attr interpolationmode none
attr recordingmode vector
attr source queueingTime(demuxFlow(packetPulled))
attr title "flow queueing times"
attr unit s
vector 13 ClusteringNetwork.host[0].wlan[0].queue flowIncomingDataRate:vector ETV
attr interpolationmode linear
attr recordingmode vector
attr source throughput(flowPacketLength(demuxFlow(packetPushStarted)))
attr title "flow specific incoming data rate"
attr unit bps
vector 14 ClusteringNetwork.host[0].wlan[0].queue flowOutgoingDataRate:vector ETV
attr interpolationmode linear
attr recordingmode vector
attr source throughput(flowPacketLength(demuxFlow(packetPulled)))
attr title "flow specific outgoing data rate"
attr unit bps
vector 15 ClusteringNetwork.host[0].wlan[0].mac passedUpPk:vector(packetBytes) ETV
attr interpolationmode none
attr recordingmode vector(packetBytes)
attr source packetSentToUpper
attr title "packets passed to higher layer, packetBytes"
vector 16 ClusteringNetwork.host[0].wlan[0].mac sentDownPk:vector(packetBytes) ETV
attr interpolationmode none
attr recordingmode vector(packetBytes)
attr source packetSentToLower
attr title "packets sent to lower layer, packetBytes"
vector 17 ClusteringNetwork.host[0].wlan[0].mac rcvdPkFromHl:vector(packetBytes) ETV
attr interpolationmode none
attr recordingmode vector(packetBytes)
attr source packetReceivedFromUpper
attr title "packets received from higher layer, packetBytes"
vector 18 ClusteringNetwork.host[0].wlan[0].mac rcvdPkFromLl:vector(packetBytes) ETV
attr interpolationmode none
attr recordingmode vector(packetBytes)
attr source packetReceivedFromLower
attr title "packets received from lower layer, packetBytes"
vector 19 ClusteringNetwork.host[0].wlan[0].mac packetDropIncorrectlyReceived:vector(packetBytes) ETV
attr interpolationmode none
attr recordingmode vector(packetBytes)
attr source packetDropReasonIsIncorrectlyReceived(packetDropped)
attr title "packet drop: incorrectly received, packetBytes"
vector 20 ClusteringNetwork.host[0].wlan[0].mac packetDropInterfaceDown:vector(packetBytes) ETV
attr interpolationmode none
attr recordingmode vector(packetBytes)
attr source packetDropReasonIsInterfaceDown(packetDropped)
attr title "packet drop: interface down, packetBytes"
vector 21 ClusteringNetwork.host[0].wlan[0].mac packetDropNotAddressedToUs:vector(packetBytes) ETV
attr interpolationmode none
attr recordingmode vector(packetBytes)
attr source packetDropReasonIsNotAddressedToUs(packetDropped)
attr title "packet drop: not addressed to us, packetBytes"
vector 22 ClusteringNetwork.host[0].wlan[0].radio radioMode:vector ETV
attr interpolationmode sample-hold
attr recordingmode vector
attr source radioModeChanged
attr title "Radio mode"
vector 23 ClusteringNetwork.host[0].wlan[0].radio receptionState:vector ETV
attr interpolationmode sample-hold
attr recordingmode vector
attr source receptionStateChanged
attr title "Radio reception state"
vector 24 ClusteringNetwork.host[0].wlan[0].radio transmissionState:vector ETV
attr interpolationmode sample-hold
attr recordingmode vector
attr source transmissionStateChanged
attr title "Radio transmission state"
vector 25 ClusteringNetwork.host[0].wlan[0] packetDropInterfaceDown:vector(packetBytes) ETV
attr interpolationmode none
attr recordingmode vector(packetBytes)
attr source packetDropReasonIsInterfaceDown(packetDropped)
attr title "packet drops: interface down, packetBytes"
vector 26 ClusteringNetwork.host[0].wlan[0] packetDropNoCarrier:vector(packetBytes) ETV
attr interpolationmode none
attr recordingmode vector(packetBytes)
attr source packetDropReasonIsNoCarrier(packetDropped)
attr title "packet drops: no carrier, packetBytes"
vector 27 ClusteringNetwork.host[0].ipv4.ip packetDropAddressResolutionFailed:vector(packetBytes) ETV
attr interpolationmode none
attr recordingmode vector(packetBytes)
attr source packetDropReasonIsAddressResolutionFailed(packetDropped)
attr title "packet drop: address resolution failed, packetBytes"
vector 28 ClusteringNetwork.host[0].ipv4.ip packetDropHopLimitReached:vector(packetBytes) ETV
attr interpolationmode none
attr recordingmode vector(packetBytes)
attr source packetDropReasonIsHopLimitReached(packetDropped)
attr title "packet drop: hop limit reached, packetBytes"
vector 29 ClusteringNetwork.host[0].ipv4.ip packetDropForwardingDisabled:vector(packetBytes) ETV
attr interpolationmode none
attr recordingmode vector(packetBytes)
attr source packetDropReasonIsForwardingDisabled(packetDropped)
attr title "packet drop: forwarding disabled, packetBytes"
vector 30 ClusteringNetwork.host[0].ipv4.ip packetDropNoInterfaceFound:vector(packetBytes) ETV
attr interpolationmode none
attr recordingmode vector(packetBytes)
attr source packetDropReasonIsNoInterfaceFound(packetDropped)
attr title "packet drop: no interface found, packetBytes"
vector 31 ClusteringNetwork.host[0].ipv4.ip packetDropNoRouteFound:vector(packetBytes) ETV
attr interpolationmode none
attr recordingmode vector(packetBytes)
attr source packetDropReasonIsNoRouteFound(packetDropped)
attr title "packet drop: no route found, packetBytes"
vector 32 ClusteringNetwork.host[0].ipv4.ip packetDropUndefined:vector(packetBytes) ETV
attr interpolationmode none
attr recordingmode vector(packetBytes)
attr source packetDropReasonIsUndefined(packetDropped)
attr title "packet drop: undefined, packetBytes"
vector 33 ClusteringNetwork.host[0].ipv4.arp arpRequestSent:vector(packetBytes) ETV
attr recordingmode vector(packetBytes)
attr source arpRequestSent
attr title "ARP request sent, packetBytes"
vector 34 ClusteringNetwork.host[0].ipv4.arp arpReplySent:vector(packetBytes) ETV
attr recordingmode vector(packetBytes)
attr source arpReplySent
attr title "ARP replies sent, packetBytes"
vector 35 ClusteringNetwork.host[0].udp packetSent:vector(packetBytes) ETV
attr interpolationmode none
attr recordingmode vector(packetBytes)
attr source packetSent
attr title "packets sent, packetBytes"
vector 36 ClusteringNetwork.host[0].udp packetReceived:vector(packetBytes) ETV
attr interpolationmode none
attr recordingmode vector(packetBytes)
attr source packetReceived
attr title "packets received, packetBytes"
vector 37 ClusteringNetwork.host[0].udp passedUpPk:vector(count) ETV
attr interpolationmode none
attr recordingmode vector(count)
attr source packetSentToUpper
attr title "packets passed up, count"
vector 38 ClusteringNetwork.host[0].udp droppedPkWrongPort:vector(count) ETV
attr interpolationmode none
attr recordingmode vector(count)
attr source packetDropReasonIsNoPortFound(packetDropped)
attr title "packets dropped (wrong port), count"
vector 39 ClusteringNetwork.host[0].udp droppedPkBadChecksum:vector(count) ETV
attr interpolationmode none
attr recordingmode vector(count)
attr source packetDropReasonIsIncorrectlyReceived(packetDropped)
attr title "packets dropped (checksum error), count"
vector 40 ClusteringNetwork.host[1].lo[0].lo rcvdPkFromHl:vector(packetBytes) ETV
attr interpolationmode none
attr recordingmode vector(packetBytes)
attr source packetReceivedFromUpper
attr title "packets received from higher layer, packetBytes"
vector 41 ClusteringNetwork.host[1].lo[0].lo passedUpPk:vector(packetBytes) ETV
attr interpolationmode none
attr recordingmode vector(packetBytes)
attr source packetSentToUpper
attr title "packets passed to higher layer, packetBytes"
vector 42 ClusteringNetwork.host[1].lo[0] packetDropInterfaceDown:vector(packetBytes) ETV
attr interpolationmode none
attr recordingmode vector(packetBytes)
attr source packetDropReasonIsInterfaceDown(packetDropped)
attr title "packet drops: interface down, packetBytes"
vector 43 ClusteringNetwork.host[1].lo[0] packetDropNoCarrier:vector(packetBytes) ETV
attr interpolationmode none
attr recordingmode vector(packetBytes)
attr source packetDropReasonIsNoCarrier(packetDropped)
attr title "packet drops: no carrier, packetBytes"
vector 44 ClusteringNetwork.host[1].wlan[0].queue queueLength:vector ETV
attr autoWarmupFilter false
attr interpolationmode sample-hold
attr recordingmode vector
attr source "warmup(atomic(constant0(packetPushEnded) + count(packetPushStarted) - count(packetPulled) - count(packetRemoved) - count(packetDropped)))"
attr title "queue length"
attr unit pk
vector 45 ClusteringNetwork.host[1].wlan[0].queue queueBitLength:vector ETV
attr autoWarmupFilter false
attr interpolationmode sample-hold
attr recordingmode vector
attr source "warmup(atomic(constant0(packetPushEnded) + sum(packetLength(packetPushStarted)) - sum(packetLength(packetPulled)) - sum(packetLength(packetRemoved)) - sum(packetLength(packetDropped))))"
attr title "queue bit length"
attr unit b
vector 46 ClusteringNetwork.host[1].wlan[0].queue queueingTime:vector ETV
attr interpolationmode none
attr recordingmode vector
attr source queueingTime(packetPulled)
attr title "queueing times"
attr unit s
vector 47 ClusteringNetwork.host[1].wlan[0].queue incomingPacketLengths:vector ETV
attr interpolationmode none
attr recordingmode vector
attr source packetLength(packetPushStarted)
attr title "incoming packet lengths"
attr unit b
vector 48 ClusteringNetwork.host[1].wlan[0].queue incomingDataRate:vector ETV
attr interpolationmode linear
attr recordingmode vector
attr source throughput(packetPushStarted)
attr title "incoming datarate"
attr unit bps
vector 49 ClusteringNetwork.host[1].wlan[0].queue outgoingPacketLengths:vector ETV
attr interpolationmode none
attr recordingmode vector
attr source packetLength(packetPulled)
attr title "outgoing packet lengths"
attr unit b
vector 50 ClusteringNetwork.host[1].wlan[0].queue outgoingDataRate:vector ETV
attr interpolationmode linear
attr recordingmode vector
attr source throughput(packetPulled)
attr title "outgoing datarate"
attr unit bps
vector 51 ClusteringNetwork.host[1].wlan[0].queue droppedPacketLengthsQueueOverflow:vector ETV
attr interpolationmode none
attr recordingmode vector
attr source packetLength(packetDropReasonIsQueueOverflow(packetDropped))
attr title "dropped packet lengths: queue overflow"
attr unit b
vector 52 ClusteringNetwork.host[1].wlan[0].queue flowQueueingTime:vector ETV
attr interpolationmode none
attr recordingmode vector
attr source queueingTime(demuxFlow(packetPulled))
attr title "flow queueing times"
attr unit s
vector 53 ClusteringNetwork.host[1].wlan[0].queue flowIncomingDataRate:vector ETV
attr interpolationmode linear
attr recordingmode vector
attr source throughput(flowPacketLength(demuxFlow(packetPushStarted)))
attr title "flow specific incoming data rate"
attr unit bps
vector 54 ClusteringNetwork.host[1].wlan[0].queue flowOutgoingDataRate:vector ETV
attr interpolationmode linear
attr recordingmode vector
attr source throughput(flowPacketLength(demuxFlow(packetPulled)))
attr title "flow specific outgoing data rate"
attr unit bps
vector 55 ClusteringNetwork.host[1].wlan[0].mac passedUpPk:vector(packetBytes) ETV
attr interpolationmode none
attr recordingmode vector(packetBytes)
attr source packetSentToUpper
attr title "packets passed to higher layer, packetBytes"
vector 56 ClusteringNetwork.host[1].wlan[0].mac sentDownPk:vector(packetBytes) ETV
attr interpolationmode none
attr recordingmode vector(packetBytes)
attr source packetSentToLower
attr title "packets sent to lower layer, packetBytes"
vector 57 ClusteringNetwork.host[1].wlan[0].mac rcvdPkFromHl:vector(packetBytes) ETV
attr interpolationmode none
attr recordingmode vector(packetBytes)
attr source packetReceivedFromUpper
attr title "packets received from higher layer, packetBytes"
vector 58 ClusteringNetwork.host[1].wlan[0].mac rcvdPkFromLl:vector(packetBytes) ETV
attr interpolationmode none
attr recordingmode vector(packetBytes)
attr source packetReceivedFromLower
attr title "packets received from lower layer, packetBytes"
vector 59 ClusteringNetwork.host[1].wlan[0].mac packetDropIncorrectlyReceived:vector(packetBytes) ETV
attr interpolationmode none
attr recordingmode vector(packetBytes)
attr source packetDropReasonIsIncorrectlyReceived(packetDropped)
attr title "packet drop: incorrectly received, packetBytes"
vector 60 ClusteringNetwork.host[1].wlan[0].mac packetDropInterfaceDown:vector(packetBytes) ETV
attr interpolationmode none
attr recordingmode vector(packetBytes)
attr source packetDropReasonIsInterfaceDown(packetDropped)
attr title "packet drop: interface down, packetBytes"
vector 61 ClusteringNetwork.host[1].wlan[0].mac packetDropNotAddressedToUs:vector(packetBytes) ETV
attr interpolationmode none
attr recordingmode vector(packetBytes)
attr source packetDropReasonIsNotAddressedToUs(packetDropped)
attr title "packet drop: not addressed to us, packetBytes"
vector 62 ClusteringNetwork.host[1].wlan[0].radio radioMode:vector ETV
attr interpolationmode sample-hold
attr recordingmode vector
attr source radioModeChanged
attr title "Radio mode"
vector 63 ClusteringNetwork.host[1].wlan[0].radio receptionState:vector ETV
attr interpolationmode sample-hold
attr recordingmode vector
attr source receptionStateChanged
attr title "Radio reception state"
vector 64 ClusteringNetwork.host[1].wlan[0].radio transmissionState:vector ETV
attr interpolationmode sample-hold
attr recordingmode vector
attr source transmissionStateChanged
attr title "Radio transmission state"
vector 65 ClusteringNetwork.host[1].wlan[0] packetDropInterfaceDown:vector(packetBytes) ETV
attr interpolationmode none
attr recordingmode vector(packetBytes)
attr source packetDropReasonIsInterfaceDown(packetDropped)
attr title "packet drops: interface down, packetBytes"
vector 66 ClusteringNetwork.host[1].wlan[0] packetDropNoCarrier:vector(packetBytes) ETV
attr interpolationmode none
attr recordingmode vector(packetBytes)
attr source packetDropReasonIsNoCarrier(packetDropped)
attr title "packet drops: no carrier, packetBytes"
vector 67 ClusteringNetwork.host[1].ipv4.ip packetDropAddressResolutionFailed:vector(packetBytes) ETV
attr interpolationmode none
attr recordingmode vector(packetBytes)
attr source packetDropReasonIsAddressResolutionFailed(packetDropped)
attr title "packet drop: address resolution failed, packetBytes"
vector 68 ClusteringNetwork.host[1].ipv4.ip packetDropHopLimitReached:vector(packetBytes) ETV
attr interpolationmode none
attr recordingmode vector(packetBytes)
attr source packetDropReasonIsHopLimitReached(packetDropped)
attr title "packet drop: hop limit reached, packetBytes"
vector 69 ClusteringNetwork.host[1].ipv4.ip packetDropForwardingDisabled:vector(packetBytes) ETV
attr interpolationmode none
attr recordingmode vector(packetBytes)
attr source packetDropReasonIsForwardingDisabled(packetDropped)
attr title "packet drop: forwarding disabled, packetBytes"
vector 70 ClusteringNetwork.host[1].ipv4.ip packetDropNoInterfaceFound:vector(packetBytes) ETV
attr interpolationmode none
attr recordingmode vector(packetBytes)
attr source packetDropReasonIsNoInterfaceFound(packetDropped)
attr title "packet drop: no interface found, packetBytes"
vector 71 ClusteringNetwork.host[1].ipv4.ip packetDropNoRouteFound:vector(packetBytes) ETV
attr interpolationmode none
attr recordingmode vector(packetBytes)
attr source packetDropReasonIsNoRouteFound(packetDropped)
attr title "packet drop: no route found, packetBytes"
vector 72 ClusteringNetwork.host[1].ipv4.ip packetDropUndefined:vector(packetBytes) ETV
attr interpolationmode none
attr recordingmode vector(packetBytes)
attr source packetDropReasonIsUndefined(packetDropped)
attr title "packet drop: undefined, packetBytes"
vector 73 ClusteringNetwork.host[1].ipv4.arp arpRequestSent:vector(packetBytes) ETV
attr recordingmode vector(packetBytes)
attr source arpRequestSent
attr title "ARP request sent, packetBytes"
vector 74 ClusteringNetwork.host[1].ipv4.arp arpReplySent:vector(packetBytes) ETV
attr recordingmode vector(packetBytes)
attr source arpReplySent
attr title "ARP replies sent, packetBytes"
vector 75 ClusteringNetwork.host[1].udp packetSent:vector(packetBytes) ETV
attr interpolationmode none
attr recordingmode vector(packetBytes)
attr source packetSent
attr title "packets sent, packetBytes"
vector 76 ClusteringNetwork.host[1].udp packetReceived:vector(packetBytes) ETV
attr interpolationmode none
attr recordingmode vector(packetBytes)
attr source packetReceived
attr title "packets received, packetBytes"
vector 77 ClusteringNetwork.host[1].udp passedUpPk:vector(count) ETV
attr interpolationmode none
attr recordingmode vector(count)
attr source packetSentToUpper
attr title "packets passed up, count"
vector 78 ClusteringNetwork.host[1].udp droppedPkWrongPort:vector(count) ETV
attr interpolationmode none
attr recordingmode vector(count)
attr source packetDropReasonIsNoPortFound(packetDropped)
attr title "packets dropped (wrong port), count"
vector 79 ClusteringNetwork.host[1].udp droppedPkBadChecksum:vector(count) ETV
attr interpolationmode none
attr recordingmode vector(count)
attr source packetDropReasonIsIncorrectlyReceived(packetDropped)
attr title "packets dropped (checksum error), count"
0	25	0.5	29
0	62	1	29
0	101	1.5	29
0	138	2	29
0	177	2.5	29
0	216	3	29
0	255	3.5	29
0	292	4	29
0	331	4.5	29
0	370	5	29
0	407	5.5	29
0	446	6	29
0	485	6.5	29
0	524	7	29
0	561	7.5	29
0	600	8	29
0	647	8.5	29
0	692	9	29
0	739	9.5	29
0	786	10	29
0	833	10.5	29
0	878	11	29
0	925	11.5	29
0	972	12	29
0	1017	12.5	29
0	1064	13	29
0	1111	13.5	29
0	1158	14	29
0	1203	14.5	29
0	1250	15	29
0	1297	15.5	29
0	1342	16	29
0	1389	16.5	29
0	1436	17	29
0	1483	17.5	29
0	1528	18	29
0	1575	18.5	29
0	1622	19	29
0	1667	19.5	29
0	1714	20	29
0	1761	20.5	29
0	1808	21	29
0	1853	21.5	29
0	1900	22	29
0	1947	22.5	29
0	1992	23	29
0	2039	23.5	29
0	2086	24	29
0	2133	24.5	29
0	2178	25	29
0	2225	25.5	29
0	2272	26	29
0	2317	26.5	29
0	2364	27	29
0	2411	27.5	29
0	2458	28	29
0	2503	28.5	29
0	2550	29	29
0	2597	29.5	29
0	2642	30	29
0	2689	30.5	29
0	2736	31	29
0	2783	31.5	29
0	2828	32	29
0	2875	32.5	29
0	2922	33	29
0	2967	33.5	29
0	3014	34	29
0	3061	34.5	29
0	3108	35	29
0	3153	35.5	29
0	3200	36	29
0	3247	36.5	29
0	3292	37	29
0	3339	37.5	29
0	3386	38	29
0	3433	38.5	29
0	3478	39	29
0	3525	39.5	29
0	3572	40	29
0	3617	40.5	29
0	3664	41	29
0	3711	41.5	29
0	3758	42	29
0	3803	42.5	29
0	3850	43	29
0	3897	43.5	29
0	3942	44	29
0	3989	44.5	29
0	4036	45	29
0	4083	45.5	29
0	4128	46	29
0	4175	46.5	29
0	4222	47	29
0	4267	47.5	29
0	4314	48	29
0	4361	48.5	29
0	4408	49	29
0	4453	49.5	29
0	4500	50	29
0	4547	50.5	29
0	4592	51	29
0	4639	51.5	29
0	4686	52	29
0	4733	52.5	29
0	4778	53	29
0	4825	53.5	29
0	4872	54	29
0	4917	54.5	29
0	4964	55	29
0	5011	55.5	29
0	5058	56	29
0	5103	56.5	29
0	5150	57	29
0	5197	57.5	29
0	5242	58	29
0	5289	58.5	29
0	5336	59	29
0	5383	59.5	29
0	5428	60	29
0	5475	60.5	29
0	5522	61	29
0	5567	61.5	29
0	5614	62	29
0	5661	62.5	29
0	5708	63	29
0	5753	63.5	29
0	5800	64	29
0	5847	64.5	29
0	5892	65	29
0	5939	65.5	29
0	5986	66	29
0	6033	66.5	29
0	6078	67	29
0	6125	67.5	29
0	6172	68	29
0	6217	68.5	29
0	6264	69	29
0	6311	69.5	29
0	6358	70	29
0	6403	70.5	29
0	6442	71	29
0	6481	71.5	29
0	6518	72	29
0	6557	72.5	29
0	6596	73	29
0	6635	73.5	29
0	6672	74	29
0	6711	74.5	29
0	6758	75	29
0	6803	75.5	29
0	6850	76	29
1	25	0.5	29
1	62	1	29
1	101	1.5	29
1	138	2	29
1	177	2.5	29
1	216	3	29
1	255	3.5	29
1	292	4	29
1	331	4.5	29
1	370	5	29
1	407	5.5	29
1	446	6	29
1	485	6.5	29
1	524	7	29
1	561	7.5	29
1	600	8	29
1	647	8.5	29
1	692	9	29
1	739	9.5	29
1	786	10	29
1	833	10.5	29
1	878	11	29
1	925	11.5	29
1	972	12	29
1	1017	12.5	29
1	1064	13	29
1	1111	13.5	29
1	1158	14	29
1	1203	14.5	29
1	1250	15	29
1	1297	15.5	29
1	1342	16	29
1	1389	16.5	29
1	1436	17	29
1	1483	17.5	29
1	1528	18	29
1	1575	18.5	29
1	1622	19	29
1	1667	19.5	29
1	1714	20	29
1	1761	20.5	29
1	1808	21	29
1	1853	21.5	29
1	1900	22	29
1	1947	22.5	29
1	1992	23	29
1	2039	23.5	29
1	2086	24	29
1	2133	24.5	29
1	2178	25	29
1	2225	25.5	29
1	2272	26	29
1	2317	26.5	29
1	2364	27	29
1	2411	27.5	29
1	2458	28	29
1	2503	28.5	29
1	2550	29	29
1	2597	29.5	29
1	2642	30	29
1	2689	30.5	29
1	2736	31	29
1	2783	31.5	29
1	2828	32	29
1	2875	32.5	29
1	2922	33	29
1	2967	33.5	29
1	3014	34	29
1	3061	34.5	29
1	3108	35	29
1	3153	35.5	29
1	3200	36	29
1	3247	36.5	29
1	3292	37	29
1	3339	37.5	29
1	3386	38	29
1	3433	38.5	29
1	3478	39	29
1	3525	39.5	29
1	3572	40	29
1	3617	40.5	29
1	3664	41	29
1	3711	41.5	29
1	3758	42	29
1	3803	42.5	29
1	3850	43	29
1	3897	43.5	29
1	3942	44	29
1	3989	44.5	29
1	4036	45	29
1	4083	45.5	29
1	4128	46	29
1	4175	46.5	29
1	4222	47	29
1	4267	47.5	29
1	4314	48	29
1	4361	48.5	29
1	4408	49	29
1	4453	49.5	29
1	4500	50	29
1	4547	50.5	29
1	4592	51	29
1	4639	51.5	29
1	4686	52	29
1	4733	52.5	29
1	4778	53	29
1	4825	53.5	29
1	4872	54	29
1	4917	54.5	29
1	4964	55	29
1	5011	55.5	29
1	5058	56	29
1	5103	56.5	29
1	5150	57	29
1	5197	57.5	29
1	5242	58	29
1	5289	58.5	29
1	5336	59	29
1	5383	59.5	29
1	5428	60	29
1	5475	60.5	29
1	5522	61	29
1	5567	61.5	29
1	5614	62	29
1	5661	62.5	29
1	5708	63	29
1	5753	63.5	29
1	5800	64	29
1	5847	64.5	29
1	5892	65	29
1	5939	65.5	29
1	5986	66	29
1	6033	66.5	29
1	6078	67	29
1	6125	67.5	29
1	6172	68	29
1	6217	68.5	29
1	6264	69	29
1	6311	69.5	29
1	6358	70	29
1	6403	70.5	29
1	6442	71	29
1	6481	71.5	29
1	6518	72	29
1	6557	72.5	29
1	6596	73	29
1	6635	73.5	29
1	6672	74	29
1	6711	74.5	29
1	6758	75	29
1	6803	75.5	29
1	6850	76	29
4	0	0	0
4	0	0	0
4	0	0	0
4	0	0	0
4	0	0	0
4	26	0.5	0
4	63	1	0
4	102	1.5	0
4	139	2	0
4	178	2.5	0
4	217	3	0
4	256	3.5	0
4	293	4	0
4	332	4.5	0
4	371	5	0
4	408	5.5	0
4	447	6	0
4	486	6.5	0
4	525	7	0
4	562	7.5	0
4	601	8	0
4	648	8.5	0
4	693	9	0
4	740	9.5	0
4	787	10	0
4	834	10.5	0
4	879	11	0
4	926	11.5	0
4	973	12	0
4	1018	12.5	0
4	1065	13	0
4	1112	13.5	0
4	1159	14	0
4	1204	14.5	0
4	1251	15	0
4	1298	15.5	0
4	1343	16	0
4	1390	16.5	0
4	1437	17	0
4	1484	17.5	0
4	1529	18	0
4	1576	18.5	0
4	1623	19	0
4	1668	19.5	0
4	1715	20	0
4	1762	20.5	0
4	1809	21	0
4	1854	21.5	0
4	1901	22	0
4	1948	22.5	0
4	1993	23	0
4	2040	23.5	0
4	2087	24	0
4	2134	24.5	0
4	2179	25	0
4	2226	25.5	0
4	2273	26	0
4	2318	26.5	0
4	2365	27	0
4	2412	27.5	0
4	2459	28	0
4	2504	28.5	0
4	2551	29	0
4	2598	29.5	0
4	2643	30	0
4	2690	30.5	0
4	2737	31	0
4	2784	31.5	0
4	2829	32	0
4	2876	32.5	0
4	2923	33	0
4	2968	33.5	0
4	3015	34	0
4	3062	34.5	0
4	3109	35	0
4	3154	35.5	0
4	3201	36	0
4	3248	36.5	0
4	3293	37	0
4	3340	37.5	0
4	3387	38	0
4	3434	38.5	0
4	3479	39	0
4	3526	39.5	0
4	3573	40	0
4	3618	40.5	0
4	3665	41	0
4	3712	41.5	0
4	3759	42	0
4	3804	42.5	0
4	3851	43	0
4	3898	43.5	0
4	3943	44	0
4	3990	44.5	0
4	4037	45	0
4	4084	45.5	0
4	4129	46	0
4	4176	46.5	0
4	4223	47	0
4	4268	47.5	0
4	4315	48	0
4	4362	48.5	0
4	4409	49	0
4	4454	49.5	0
4	4501	50	0
4	4548	50.5	0
4	4593	51	0
4	4640	51.5	0
4	4687	52	0
4	4734	52.5	0
4	4779	53	0
4	4826	53.5	0
4	4873	54	0
4	4918	54.5	0
4	4965	55	0
4	5012	55.5	0
4	5059	56	0
4	5104	56.5	0
4	5151	57	0
4	5198	57.5	0
4	5243	58	0
4	5290	58.5	0
4	5337	59	0
4	5384	59.5	0
4	5429	60	0
4	5476	60.5	0
4	5523	61	0
4	5568	61.5	0
4	5615	62	0
4	5662	62.5	0
4	5709	63	0
4	5754	63.5	0
4	5801	64	0
4	5848	64.5	0
4	5893	65	0
4	5940	65.5	0
4	5987	66	0
4	6034	66.5	0
4	6079	67	0
4	6126	67.5	0
4	6173	68	0
4	6218	68.5	0
4	6265	69	0
4	6312	69.5	0
4	6359	70	0
4	6404	70.5	0
4	6443	71	0
4	6482	71.5	0
4	6519	72	0
4	6558	72.5	0
4	6597	73	0
4	6636	73.5	0
4	6673	74	0
4	6712	74.5	0
4	6759	75	0
4	6804	75.5	0
4	6851	76	0
5	0	0	0
5	0	0	0
5	0	0	0
5	0	0	0
5	0	0	0
5	26	0.5	0
5	63	1	0
5	102	1.5	0
5	139	2	0
5	178	2.5	0
5	217	3	0
5	256	3.5	0
5	293	4	0
5	332	4.5	0
5	371	5	0
5	408	5.5	0
5	447	6	0
5	486	6.5	0
5	525	7	0
5	562	7.5	0
5	601	8	0
5	648	8.5	0
5	693	9	0
5	740	9.5	0
5	787	10	0
5	834	10.5	0
5	879	11	0
5	926	11.5	0
5	973	12	0
5	1018	12.5	0
5	1065	13	0
5	1112	13.5	0
5	1159	14	0
5	1204	14.5	0
5	1251	15	0
5	1298	15.5	0
5	1343	16	0
5	1390	16.5	0
5	1437	17	0
5	1484	17.5	0
5	1529	18	0
5	1576	18.5	0
5	1623	19	0
5	1668	19.5	0
5	1715	20	0
5	1762	20.5	0
5	1809	21	0
5	1854	21.5	0
5	1901	22	0
5	1948	22.5	0
5	1993	23	0
5	2040	23.5	0
5	2087	24	0
5	2134	24.5	0
5	2179	25	0
5	2226	25.5	0
5	2273	26	0
5	2318	26.5	0
5	2365	27	0
5	2412	27.5	0
5	2459	28	0
5	2504	28.5	0
5	2551	29	0
5	2598	29.5	0
5	2643	30	0
5	2690	30.5	0
5	2737	31	0
5	2784	31.5	0
5	2829	32	0
5	2876	32.5	0
5	2923	33	0
5	2968	33.5	0
5	3015	34	0
5	3062	34.5	0
5	3109	35	0
5	3154	35.5	0
5	3201	36	0
5	3248	36.5	0
5	3293	37	0
5	3340	37.5	0
5	3387	38	0
5	3434	38.5	0
5	3479	39	0
5	3526	39.5	0
5	3573	40	0
5	3618	40.5	0
5	3665	41	0
5	3712	41.5	0
5	3759	42	0
5	3804	42.5	0
5	3851	43	0
5	3898	43.5	0
5	3943	44	0
5	3990	44.5	0
5	4037	45	0
5	4084	45.5	0
5	4129	46	0
5	4176	46.5	0
5	4223	47	0
5	4268	47.5	0
5	4315	48	0
5	4362	48.5	0
5	4409	49	0
5	4454	49.5	0
5	4501	50	0
5	4548	50.5	0
5	4593	51	0
5	4640	51.5	0
5	4687	52	0
5	4734	52.5	0
5	4779	53	0
5	4826	53.5	0
5	4873	54	0
5	4918	54.5	0
5	4965	55	0
5	5012	55.5	0
5	5059	56	0
5	5104	56.5	0
5	5151	57	0
5	5198	57.5	0
5	5243	58	0
5	5290	58.5	0
5	5337	59	0
5	5384	59.5	0
5	5429	60	0
5	5476	60.5	0
5	5523	61	0
5	5568	61.5	0
5	5615	62	0
5	5662	62.5	0
5	5709	63	0
5	5754	63.5	0
5	5801	64	0
5	5848	64.5	0
5	5893	65	0
5	5940	65.5	0
5	5987	66	0
5	6034	66.5	0
5	6079	67	0